LAMMPS data file for coarse-grained system

1000 atoms
2 atom types

0.0 87.71491054137414 xlo xhi
0.0 87.71491054137414 ylo yhi
0.0 87.71491054137414 zlo zhi

Masses

1 1.0  # BENZ
2 1.0  # WAT

Atoms  # full

1 1 1 0.0 55.225800 15.982718 80.570331
2 1 1 0.0 0.934524 10.597993 31.545459
3 1 1 0.0 47.997608 39.108169 73.884304
4 1 1 0.0 36.571908 42.375005 76.056065
5 1 1 0.0 25.791427 35.231913 12.672064
6 1 1 0.0 2.308398 18.719743 69.048233
7 1 1 0.0 35.981112 72.057535 22.183025
8 1 1 0.0 19.977859 45.879731 31.098972
9 1 1 0.0 2.728373 1.720673 15.257307
10 1 1 0.0 71.861305 34.008742 80.792554
11 1 1 0.0 26.295007 77.823667 12.945388
12 1 1 0.0 61.091181 51.166573 70.600204
13 1 1 0.0 45.947071 37.646159 28.655374
14 1 1 0.0 4.972348 73.697891 45.453950
15 1 1 0.0 48.161453 86.971667 64.695890
16 1 1 0.0 85.181472 22.611141 64.981572
17 1 1 0.0 46.995087 50.909340 32.366624
18 1 1 0.0 58.693392 80.403835 75.196236
19 1 1 0.0 71.010392 6.041719 30.405683
20 1 1 0.0 7.580451 43.035918 3.585472
21 1 1 0.0 50.224095 18.231307 32.341728
22 1 1 0.0 45.192026 58.329999 68.744454
23 1 1 0.0 3.158123 5.611454 24.090534
24 1 1 0.0 43.585109 53.499999 24.013384
25 1 1 0.0 57.109028 36.892444 57.658426
26 1 1 0.0 14.244179 74.315417 7.512986
27 1 1 0.0 73.275781 15.858795 84.045118
28 1 1 0.0 64.621217 51.845517 45.561419
29 1 1 0.0 32.847362 54.913474 72.433192
30 1 1 0.0 65.949387 40.054344 51.087140
31 1 1 0.0 50.693478 52.443679 29.013864
32 1 1 0.0 12.467784 72.077324 50.207819
33 1 1 0.0 83.375017 36.588379 48.435874
34 1 1 0.0 59.299747 46.744964 72.486883
35 1 1 0.0 86.508668 49.873854 19.461743
36 1 1 0.0 22.372423 68.146747 22.336448
37 1 1 0.0 31.395771 50.331667 80.832974
38 1 1 0.0 54.060518 33.655968 83.883979
39 1 1 0.0 35.912008 64.456388 49.601809
40 1 1 0.0 77.976756 20.897333 0.012901
41 1 1 0.0 49.569729 25.605195 77.637017
42 1 1 0.0 57.947158 52.584159 12.199733
43 1 1 0.0 32.385392 21.872359 71.788472
44 1 1 0.0 73.394872 33.325568 40.554110
45 1 1 0.0 35.349037 8.840479 44.379941
46 1 1 0.0 28.717505 38.742064 25.565319
47 1 1 0.0 64.616900 28.398638 13.740639
48 1 1 0.0 57.173628 22.199166 30.517187
49 1 1 0.0 21.091730 11.773959 83.969627
50 1 1 0.0 27.231888 70.775894 10.793269
51 1 1 0.0 53.105386 18.899038 55.448676
52 1 1 0.0 69.803191 53.119490 35.672963
53 1 1 0.0 43.497100 83.713042 75.872599
54 1 1 0.0 12.645191 41.803042 41.161505
55 1 1 0.0 10.267122 19.310089 18.808833
56 1 1 0.0 66.683049 35.356423 55.464256
57 1 1 0.0 24.996879 46.830033 39.428940
58 1 1 0.0 76.907038 84.678481 73.077336
59 1 1 0.0 55.402227 71.148449 14.922141
60 1 1 0.0 8.771897 72.307696 32.891847
61 1 1 0.0 68.572910 21.098243 11.045241
62 1 1 0.0 8.801051 72.118554 79.662103
63 1 1 0.0 16.522974 15.262679 30.061214
64 1 1 0.0 16.397820 33.084221 15.955987
65 1 1 0.0 43.172291 83.395403 22.351577
66 1 1 0.0 13.968678 57.347883 73.739427
67 1 1 0.0 24.945245 66.703949 46.125787
68 1 1 0.0 8.258298 42.976328 9.389422
69 1 1 0.0 28.084197 7.152443 37.754200
70 1 1 0.0 55.326146 78.181821 63.841796
71 1 1 0.0 69.936797 48.177455 48.117386
72 1 1 0.0 31.168447 37.787918 81.317913
73 1 1 0.0 9.593429 54.204947 82.653038
74 1 1 0.0 76.305750 24.640564 82.228699
75 1 1 0.0 74.687818 61.646147 18.985718
76 1 1 0.0 59.583406 3.948439 79.120923
77 1 1 0.0 61.469210 45.061608 66.367537
78 1 1 0.0 22.255756 19.024807 76.300686
79 1 1 0.0 27.886045 43.984372 2.979714
80 1 1 0.0 10.031352 75.336029 36.608206
81 1 1 0.0 54.613376 14.402525 3.490688
82 1 1 0.0 22.950346 72.037085 59.640540
83 1 1 0.0 46.982303 1.696856 28.475358
84 1 1 0.0 42.541423 21.645461 61.581996
85 1 1 0.0 60.055673 42.576314 5.118223
86 1 1 0.0 3.129387 82.716087 3.138955
87 1 1 0.0 61.975813 57.243760 37.728256
88 1 1 0.0 30.370151 86.125326 83.220568
89 1 1 0.0 71.156550 39.389642 81.383687
90 1 1 0.0 5.760169 85.506569 26.822705
91 1 1 0.0 29.639460 28.665564 79.035723
92 1 1 0.0 17.737487 67.815282 33.475922
93 1 1 0.0 76.749664 16.891692 74.118695
94 1 1 0.0 51.216913 67.225510 85.566397
95 1 1 0.0 42.849956 81.111468 28.071922
96 1 1 0.0 30.933227 71.290604 34.778076
97 1 1 0.0 63.069873 86.982795 5.665606
98 1 1 0.0 68.547501 85.399590 44.831369
99 1 1 0.0 11.849936 67.333562 44.661350
100 1 1 0.0 29.815586 19.928551 33.363932
101 1 2 0.0 38.884467 6.663095 41.402189
102 1 2 0.0 58.168539 81.987322 8.346417
103 1 2 0.0 75.250178 46.787317 12.476367
104 1 2 0.0 43.692033 80.425867 26.375010
105 1 2 0.0 86.088744 71.723722 8.315289
106 1 2 0.0 87.610900 85.146894 63.707756
107 1 2 0.0 83.862228 13.106756 18.002089
108 1 2 0.0 56.713656 27.504867 62.680283
109 1 2 0.0 12.410201 45.970350 75.185744
110 1 2 0.0 20.274645 27.478239 33.436828
111 1 2 0.0 11.186139 39.172411 50.462328
112 1 2 0.0 83.215983 55.352661 10.955334
113 1 2 0.0 69.800167 5.813712 28.843128
114 1 2 0.0 44.653411 12.329456 68.116117
115 1 2 0.0 54.359511 38.286544 78.881706
116 1 2 0.0 63.151033 70.317667 66.659628
117 1 2 0.0 45.427767 12.656089 26.736499
118 1 2 0.0 82.179417 41.175267 35.727089
119 1 2 0.0 75.199856 54.450711 43.554533
120 1 2 0.0 0.695728 81.433089 1.980412
121 1 2 0.0 29.878394 51.899794 12.813867
122 1 2 0.0 49.553422 61.427472 52.168578
123 1 2 0.0 27.819711 2.028217 49.693250
124 1 2 0.0 44.580622 16.660534 6.105923
125 1 2 0.0 79.293311 14.668589 64.737517
126 1 2 0.0 25.101756 22.363256 69.047833
127 1 2 0.0 11.269628 63.129683 58.339711
128 1 2 0.0 4.224806 61.028689 68.086994
129 1 2 0.0 38.392283 44.463200 74.355989
130 1 2 0.0 1.376295 63.541750 59.418939
131 1 2 0.0 84.891894 54.483228 71.906383
132 1 2 0.0 59.772150 45.838289 65.211344
133 1 2 0.0 43.497739 68.508200 40.298428
134 1 2 0.0 13.639645 1.680589 60.013467
135 1 2 0.0 52.501817 7.271601 12.989201
136 1 2 0.0 34.609117 58.645850 6.913856
137 1 2 0.0 68.794994 44.589806 67.870400
138 1 2 0.0 23.554145 29.717939 51.646822
139 1 2 0.0 38.770389 4.034412 2.764056
140 1 2 0.0 49.542561 54.133856 57.669583
141 1 2 0.0 48.040467 75.851789 35.352856
142 1 2 0.0 55.930000 54.206883 76.752050
143 1 2 0.0 55.654189 52.618006 21.307089
144 1 2 0.0 77.431444 47.086106 65.029300
145 1 2 0.0 74.156361 68.076006 80.476178
146 1 2 0.0 14.085145 15.125478 28.183222
147 1 2 0.0 24.897589 14.118312 29.931111
148 1 2 0.0 46.037111 83.333928 78.036872
149 1 2 0.0 54.696017 10.829228 27.954133
150 1 2 0.0 79.464661 49.893372 20.806812
151 1 2 0.0 48.784200 35.211067 20.519756
152 1 2 0.0 63.461817 64.194439 80.307672
153 1 2 0.0 86.665906 23.040256 76.925594
154 1 2 0.0 17.748589 0.831495 8.994301
155 1 2 0.0 20.688201 58.268928 40.594539
156 1 2 0.0 29.590939 32.697078 28.881161
157 1 2 0.0 14.634923 59.669961 20.713423
158 1 2 0.0 54.250856 8.104028 68.990356
159 1 2 0.0 69.107894 14.370201 33.126056
160 1 2 0.0 68.227033 62.121022 24.949867
161 1 2 0.0 38.616661 68.722506 63.401422
162 1 2 0.0 71.529456 21.821089 49.158689
163 1 2 0.0 67.944456 6.208873 78.812039
164 1 2 0.0 77.290617 48.372578 35.628000
165 1 2 0.0 53.196406 40.477072 87.613222
166 1 2 0.0 33.928511 68.451139 3.239806
167 1 2 0.0 32.743650 76.902306 9.924862
168 1 2 0.0 3.978739 4.222728 62.411039
169 1 2 0.0 34.833239 49.194000 22.108089
170 1 2 0.0 25.127645 3.941328 59.781433
171 1 2 0.0 7.458373 20.592256 85.032106
172 1 2 0.0 3.148356 50.154033 80.141428
173 1 2 0.0 62.238361 24.169756 18.164089
174 1 2 0.0 42.298817 87.508433 57.476294
175 1 2 0.0 4.111306 70.333106 28.608894
176 1 2 0.0 36.292528 54.949122 70.994544
177 1 2 0.0 37.701350 55.843767 16.346256
178 1 2 0.0 12.575367 69.409878 13.690145
179 1 2 0.0 41.162339 20.498089 33.572228
180 1 2 0.0 86.831933 50.343922 54.591800
181 1 2 0.0 12.435478 24.459145 13.188589
182 1 2 0.0 75.956628 2.549662 52.781056
183 1 2 0.0 24.496867 75.424967 29.877750
184 1 2 0.0 19.584034 43.957744 8.126234
185 1 2 0.0 43.023556 17.411923 48.795139
186 1 2 0.0 7.481878 82.239183 73.231706
187 1 2 0.0 77.826889 69.897800 41.719339
188 1 2 0.0 26.400510 16.656034 41.825483
189 1 2 0.0 46.186083 64.356200 11.326573
190 1 2 0.0 13.007701 9.999173 61.746100
191 1 2 0.0 54.318478 28.339028 54.473500
192 1 2 0.0 36.842944 73.342656 46.549344
193 1 2 0.0 4.207901 48.429200 47.628461
194 1 2 0.0 87.618961 80.795050 81.977839
195 1 2 0.0 0.716928 26.513339 84.003400
196 1 2 0.0 2.640501 39.452522 20.507534
197 1 2 0.0 63.299406 53.048433 46.938328
198 1 2 0.0 41.248056 63.509722 0.783028
199 1 2 0.0 59.075128 29.589839 7.785951
200 1 2 0.0 25.262867 2.782445 73.301756
201 1 2 0.0 15.035756 15.336534 45.376117
202 1 2 0.0 42.595672 69.277706 26.201635
203 1 2 0.0 79.717856 26.270532 50.147744
204 1 2 0.0 60.722367 21.269201 41.239622
205 1 2 0.0 19.471978 79.476917 22.015701
206 1 2 0.0 68.838794 54.800328 35.827467
207 1 2 0.0 68.760700 7.127989 20.504201
208 1 2 0.0 85.907606 51.760278 37.535933
209 1 2 0.0 5.038039 52.519483 4.714495
210 1 2 0.0 13.325589 1.278228 44.691489
211 1 2 0.0 60.467311 60.334844 51.387911
212 1 2 0.0 64.176211 79.883133 65.218289
213 1 2 0.0 49.614578 66.711483 84.422622
214 1 2 0.0 6.890117 70.275317 78.472706
215 1 2 0.0 23.649145 73.927844 58.342967
216 1 2 0.0 29.238500 82.487600 63.762278
217 1 2 0.0 3.797195 37.985144 60.698983
218 1 2 0.0 75.036767 64.814511 14.949145
219 1 2 0.0 65.131994 52.595456 10.744445
220 1 2 0.0 51.262822 21.205145 22.987478
221 1 2 0.0 7.883373 28.370206 59.532906
222 1 2 0.0 20.761201 76.860300 81.144050
223 1 2 0.0 81.342817 83.517794 7.708189
224 1 2 0.0 45.923394 81.044267 48.859739
225 1 2 0.0 66.519978 23.708089 59.866544
226 1 2 0.0 52.910678 69.909339 54.453294
227 1 2 0.0 30.570267 6.516595 81.089033
228 1 2 0.0 23.415867 49.413544 74.540911
229 1 2 0.0 6.919656 58.354750 54.114978
230 1 2 0.0 33.383072 21.316145 28.229789
231 1 2 0.0 30.078144 66.399661 62.195478
232 1 2 0.0 83.929683 42.281300 57.116872
233 1 2 0.0 72.492394 75.009133 9.649045
234 1 2 0.0 33.434500 40.832417 10.359278
235 1 2 0.0 36.402789 10.464345 26.925994
236 1 2 0.0 7.684773 44.248517 81.532011
237 1 2 0.0 19.486478 14.906756 76.252844
238 1 2 0.0 56.996417 45.249039 49.016817
239 1 2 0.0 61.554872 71.516628 6.867656
240 1 2 0.0 47.053483 63.040872 61.299939
241 1 2 0.0 72.216539 75.723511 28.940733
242 1 2 0.0 63.492911 30.414767 24.681089
243 1 2 0.0 82.746333 23.703256 66.334483
244 1 2 0.0 29.970456 24.457645 7.833578
245 1 2 0.0 35.131133 56.405344 87.140150
246 1 2 0.0 86.477594 71.207744 38.224106
247 1 2 0.0 6.359645 6.454045 72.552989
248 1 2 0.0 58.173761 60.525522 31.222544
249 1 2 0.0 54.194683 81.645467 31.029233
250 1 2 0.0 73.245878 35.870244 40.345022
251 1 2 0.0 5.101251 14.988867 7.904951
252 1 2 0.0 24.406701 83.220517 55.365372
253 1 2 0.0 20.743312 31.640239 65.619378
254 1 2 0.0 16.704867 77.154922 56.532706
255 1 2 0.0 20.580589 39.916983 70.856033
256 1 2 0.0 20.190589 18.509534 86.871056
257 1 2 0.0 5.321389 75.952061 44.920489
258 1 2 0.0 18.892645 0.321178 52.085500
259 1 2 0.0 71.712928 53.969256 62.861889
260 1 2 0.0 26.962794 45.315439 38.217428
261 1 2 0.0 21.319145 56.564000 51.505311
262 1 2 0.0 65.340200 80.544478 11.470928
263 1 2 0.0 67.915783 82.963450 80.873200
264 1 2 0.0 34.373800 61.310422 37.090022
265 1 2 0.0 51.661333 13.272589 74.652267
266 1 2 0.0 76.510883 67.138533 51.285706
267 1 2 0.0 17.940423 71.382411 87.633878
268 1 2 0.0 55.703356 21.398312 10.620778
269 1 2 0.0 63.987867 38.671694 75.036083
270 1 2 0.0 38.217167 36.049700 44.625961
271 1 2 0.0 67.082933 23.808812 83.600150
272 1 2 0.0 15.015201 34.159761 14.594756
273 1 2 0.0 53.347022 19.365089 57.510694
274 1 2 0.0 50.823172 2.788106 82.687867
275 1 2 0.0 35.088972 75.694850 85.994711
276 1 2 0.0 31.088872 48.944783 57.960139
277 1 2 0.0 78.449200 13.464867 44.644922
278 1 2 0.0 11.944239 35.594289 23.361367
279 1 2 0.0 51.314583 72.157717 1.193128
280 1 2 0.0 32.220456 76.054267 70.075317
281 1 2 0.0 65.736061 37.713511 21.761312
282 1 2 0.0 24.386256 61.265239 72.475411
283 1 2 0.0 44.008300 34.684350 55.889206
284 1 2 0.0 75.523811 73.968150 75.217950
285 1 2 0.0 37.188083 65.476694 14.107756
286 1 2 0.0 44.704972 26.573706 49.127711
287 1 2 0.0 37.679533 82.682033 8.664239
288 1 2 0.0 77.173306 76.457478 3.807262
289 1 2 0.0 54.819050 36.512933 56.752417
290 1 2 0.0 42.128378 7.452545 20.173978
291 1 2 0.0 57.878939 86.859917 63.501322
292 1 2 0.0 82.754817 79.044706 40.230300
293 1 2 0.0 80.971417 76.310250 67.487561
294 1 2 0.0 85.603372 44.839000 24.440367
295 1 2 0.0 75.176378 9.104984 5.990739
296 1 2 0.0 77.067478 54.460339 55.925067
297 1 2 0.0 17.878589 30.444811 4.387212
298 1 2 0.0 79.846122 20.676867 15.628034
299 1 2 0.0 68.118889 18.951423 41.930511
300 1 2 0.0 42.830511 85.068706 20.005589
301 1 2 0.0 84.050622 81.988350 15.898367
302 1 2 0.0 9.114112 65.490128 20.644701
303 1 2 0.0 35.515767 28.169722 48.126506
304 1 2 0.0 29.632400 56.743917 63.473889
305 1 2 0.0 86.034683 61.155283 25.585367
306 1 2 0.0 13.076367 79.167306 14.132367
307 1 2 0.0 47.079417 9.769073 4.860262
308 1 2 0.0 5.863467 36.055061 40.951267
309 1 2 0.0 61.799117 45.195133 5.553156
310 1 2 0.0 36.740422 48.745239 5.922078
311 1 2 0.0 8.620167 2.161684 35.949533
312 1 2 0.0 40.120889 61.209094 46.564833
313 1 2 0.0 63.891650 40.654950 39.498289
314 1 2 0.0 62.582483 84.233356 34.805894
315 1 2 0.0 78.477956 79.211189 48.833317
316 1 2 0.0 83.972206 57.650356 61.889839
317 1 2 0.0 33.570783 19.751589 43.764983
318 1 2 0.0 61.512989 74.271617 86.037050
319 1 2 0.0 83.839711 7.544723 49.624967
320 1 2 0.0 13.687201 13.057089 70.820561
321 1 2 0.0 77.701428 28.030467 18.791589
322 1 2 0.0 56.574706 25.003423 85.553733
323 1 2 0.0 73.211867 84.863456 30.062328
324 1 2 0.0 34.325817 2.426078 72.464228
325 1 2 0.0 62.442522 30.392833 79.279517
326 1 2 0.0 82.132683 32.299106 79.996194
327 1 2 0.0 13.734589 50.837661 24.039201
328 1 2 0.0 79.648772 17.139034 51.730472
329 1 2 0.0 71.216056 76.314817 85.169350
330 1 2 0.0 34.428028 58.905578 25.199407
331 1 2 0.0 65.000461 11.148573 2.818673
332 1 2 0.0 54.370689 19.318145 67.211300
333 1 2 0.0 27.729950 30.943100 78.158356
334 1 2 0.0 7.477751 18.243089 75.453394
335 1 2 0.0 23.773145 53.693800 85.084261
336 1 2 0.0 85.561689 81.529906 24.830867
337 1 2 0.0 82.143644 2.396067 86.088089
338 1 2 0.0 49.897589 6.969617 58.311339
339 1 2 0.0 8.852189 86.010922 8.990473
340 1 2 0.0 53.962700 69.980856 15.450867
341 1 2 0.0 42.167322 77.211967 10.700578
342 1 2 0.0 64.864917 27.277317 51.363356
343 1 2 0.0 28.159539 0.170917 12.574312
344 1 2 0.0 57.259372 47.630672 30.720739
345 1 2 0.0 66.390306 75.982267 75.492111
346 1 2 0.0 22.237478 57.204533 30.296639
347 1 2 0.0 51.668094 82.918122 57.874944
348 1 2 0.0 80.565867 13.574312 84.544339
349 1 2 0.0 9.612889 42.471017 11.468517
350 1 2 0.0 16.790701 18.554145 63.795356
351 1 2 0.0 65.337694 30.121333 35.838806
352 1 2 0.0 48.072983 80.295272 41.456083
353 1 2 0.0 8.313306 18.776034 51.172767
354 1 2 0.0 56.739389 87.368894 40.160606
355 1 2 0.0 51.341822 73.231439 9.765312
356 1 2 0.0 63.844328 39.881133 50.062850
357 1 2 0.0 18.229201 61.659867 2.221323
358 1 2 0.0 74.404533 14.539201 18.241589
359 1 2 0.0 76.611289 21.054034 58.978122
360 1 2 0.0 19.579867 16.873534 22.369034
361 1 2 0.0 55.157983 55.848722 39.200361
362 1 2 0.0 81.681861 23.630312 40.175394
363 1 2 0.0 33.676072 28.282972 86.723589
364 1 2 0.0 49.739333 0.891762 51.558911
365 1 2 0.0 23.862312 48.782167 25.110923
366 1 2 0.0 55.629444 63.168806 60.146478
367 1 2 0.0 70.340500 17.005201 66.882056
368 1 2 0.0 32.474683 28.716983 65.291644
369 1 2 0.0 68.972872 82.393894 46.151406
370 1 2 0.0 58.255250 4.995617 87.150883
371 1 2 0.0 50.160422 45.472156 68.953878
372 1 2 0.0 84.041722 8.820212 61.676794
373 1 2 0.0 75.456072 50.481361 73.312983
374 1 2 0.0 53.849233 49.638911 84.216856
375 1 2 0.0 27.280783 10.553601 75.244967
376 1 2 0.0 6.892578 64.656167 35.822822
377 1 2 0.0 69.867506 52.494667 18.231867
378 1 2 0.0 8.833517 86.324300 79.995778
379 1 2 0.0 82.291850 20.971145 24.859534
380 1 2 0.0 60.468083 12.472067 79.583050
381 1 2 0.0 32.376617 69.324000 31.317461
382 1 2 0.0 16.590367 69.862794 63.962233
383 1 2 0.0 12.781812 54.245661 10.926062
384 1 2 0.0 29.202017 29.750583 41.468678
385 1 2 0.0 28.604989 70.250294 9.363439
386 1 2 0.0 27.641706 53.829028 33.896772
387 1 2 0.0 35.446378 10.802089 5.796328
388 1 2 0.0 55.744556 34.591844 24.911645
389 1 2 0.0 62.490128 11.892351 24.509812
390 1 2 0.0 5.981345 30.939128 68.454894
391 1 2 0.0 44.205089 63.103611 22.038645
392 1 2 0.0 61.031428 20.385645 27.693311
393 1 2 0.0 2.024156 60.564483 1.416295
394 1 2 0.0 20.770978 77.563856 48.743428
395 1 2 0.0 54.115811 36.800783 8.096028
396 1 2 0.0 70.789439 49.884600 5.180862
397 1 2 0.0 79.615250 77.221167 33.275517
398 1 2 0.0 77.730578 45.634711 50.517239
399 1 2 0.0 47.478389 26.203043 31.615233
400 1 2 0.0 44.632939 46.806511 25.320312
401 1 2 0.0 22.323256 64.929300 46.845911
402 1 2 0.0 9.031801 20.535867 20.252034
403 1 2 0.0 72.145056 61.849578 31.274089
404 1 2 0.0 53.910667 78.921050 61.743328
405 1 2 0.0 87.570100 78.755778 73.485772
406 1 2 0.0 72.345506 84.194744 74.274022
407 1 2 0.0 58.164033 70.940439 76.157167
408 1 2 0.0 62.504372 1.363789 6.636978
409 1 2 0.0 42.167333 87.132811 36.489950
410 1 2 0.0 42.553422 7.544867 52.063217
411 1 2 0.0 23.004478 39.130456 47.268983
412 1 2 0.0 33.523728 84.297700 0.919528
413 1 2 0.0 6.592262 28.955833 77.831694
414 1 2 0.0 66.996822 72.730067 23.376367
415 1 2 0.0 24.759589 21.550367 76.295494
416 1 2 0.0 67.069111 68.700539 15.735034
417 1 2 0.0 38.094039 83.660150 65.469428
418 1 2 0.0 55.959111 74.429922 69.909778
419 1 2 0.0 11.086128 10.250762 37.590111
420 1 2 0.0 3.963001 59.220289 47.214439
421 1 2 0.0 63.149878 70.319828 39.805006
422 1 2 0.0 51.808994 30.868272 84.836139
423 1 2 0.0 86.367039 1.185467 70.606189
424 1 2 0.0 51.375894 63.017183 41.614228
425 1 2 0.0 56.146006 83.180739 22.644089
426 1 2 0.0 21.801534 18.743867 8.556523
427 1 2 0.0 81.178383 48.452928 75.631294
428 1 2 0.0 6.297217 48.554517 26.526728
429 1 2 0.0 87.528150 61.721756 36.530361
430 1 2 0.0 73.657511 61.684922 78.927139
431 1 2 0.0 42.734100 25.350712 40.582278
432 1 2 0.0 34.400594 35.865611 60.039489
433 1 2 0.0 57.015778 12.852423 4.429978
434 1 2 0.0 5.911423 27.617061 6.610795
435 1 2 0.0 49.081517 43.102411 60.427317
436 1 2 0.0 70.974067 45.909572 42.508867
437 1 2 0.0 46.611572 28.054928 23.607423
438 1 2 0.0 28.270339 82.294844 24.076756
439 1 2 0.0 22.242701 9.162717 12.547656
440 1 2 0.0 28.776667 59.242644 43.652178
441 1 2 0.0 20.980978 8.573978 83.475817
442 1 2 0.0 58.711467 29.573006 71.845556
443 1 2 0.0 21.414756 74.702928 40.917739
444 1 2 0.0 33.141433 39.685911 36.870711
445 1 2 0.0 14.216589 54.805094 32.582411
446 1 2 0.0 1.378245 74.115128 62.005356
447 1 2 0.0 13.190367 48.916167 1.610628
448 1 2 0.0 38.121261 54.229411 31.710461
449 1 2 0.0 47.292478 12.759923 41.308756
450 1 2 0.0 82.880061 72.168600 85.460889
451 1 2 0.0 72.886711 27.252466 42.121556
452 1 2 0.0 42.055067 1.303851 11.901595
453 1 2 0.0 68.052739 0.476406 61.670350
454 1 2 0.0 80.111322 0.250334 45.599333
455 1 2 0.0 51.833744 2.034139 5.585012
456 1 2 0.0 56.298672 36.038456 46.158139
457 1 2 0.0 30.750667 15.681312 13.319367
458 1 2 0.0 33.333206 11.370051 55.137144
459 1 2 0.0 50.337239 2.171801 74.637833
460 1 2 0.0 26.889617 9.920012 19.258589
461 1 2 0.0 40.717072 71.664328 71.139500
462 1 2 0.0 86.752122 74.119844 53.502006
463 1 2 0.0 64.744100 35.801089 6.689762
464 1 2 0.0 78.443317 71.469217 10.845723
465 1 2 0.0 18.421812 37.166261 38.611583
466 1 2 0.0 55.113111 14.484701 38.343406
467 1 2 0.0 82.434189 62.805378 9.289734
468 1 2 0.0 62.174861 56.655589 85.563194
469 1 2 0.0 58.524811 49.054906 56.545017
470 1 2 0.0 33.080539 27.906600 34.225617
471 1 2 0.0 28.234239 14.403312 3.506634
472 1 2 0.0 55.955750 23.224256 32.912567
473 1 2 0.0 62.568094 67.540406 31.910489
474 1 2 0.0 30.217333 62.019539 55.036211
475 1 2 0.0 23.098256 69.695161 75.874444
476 1 2 0.0 27.828389 46.852172 3.292451
477 1 2 0.0 25.610867 64.883433 23.714923
478 1 2 0.0 85.899350 3.634039 24.296867
479 1 2 0.0 48.041494 43.670672 50.634539
480 1 2 0.0 48.585139 38.732206 29.678089
481 1 2 0.0 9.334628 84.020728 62.226272
482 1 2 0.0 57.888617 82.872872 71.240033
483 1 2 0.0 34.542650 70.230078 22.845978
484 1 2 0.0 47.558289 28.413244 78.334883
485 1 2 0.0 78.743522 82.136928 81.548739
486 1 2 0.0 24.473756 86.900361 39.762839
487 1 2 0.0 12.752589 61.294989 69.033556
488 1 2 0.0 1.804995 14.830478 40.289272
489 1 2 0.0 41.143767 49.090883 56.140189
490 1 2 0.0 20.414423 69.107206 22.509756
491 1 2 0.0 33.271039 34.366072 15.820978
492 1 2 0.0 64.310244 57.906872 76.851739
493 1 2 0.0 28.018172 21.256812 50.996344
494 1 2 0.0 28.952911 73.094317 51.850217
495 1 2 0.0 79.383189 44.322289 85.459561
496 1 2 0.0 76.807950 66.935778 23.634812
497 1 2 0.0 51.252261 46.866878 40.451933
498 1 2 0.0 82.659339 54.099772 28.626111
499 1 2 0.0 72.739522 79.001372 38.299517
500 1 2 0.0 82.352889 72.557150 24.150201
501 1 2 0.0 40.932267 72.693567 17.478423
502 1 2 0.0 73.464172 81.867911 65.367172
503 1 2 0.0 66.001583 64.856883 53.650778
504 1 2 0.0 19.126812 47.210306 33.033883
505 1 2 0.0 71.833683 68.947250 34.032594
506 1 2 0.0 56.853889 63.421539 69.714350
507 1 2 0.0 20.140478 62.923494 65.236089
508 1 2 0.0 79.185911 9.080839 23.993923
509 1 2 0.0 76.898506 28.447333 32.918372
510 1 2 0.0 49.385683 86.036544 65.859328
511 1 2 0.0 15.400423 25.109589 79.144489
512 1 2 0.0 49.475233 71.787500 65.088717
513 1 2 0.0 32.272550 46.474633 28.248439
514 1 2 0.0 79.448411 84.862600 73.664283
515 1 2 0.0 45.241278 50.208739 33.273806
516 1 2 0.0 66.205117 20.851089 12.049173
517 1 2 0.0 68.665544 18.305701 21.412201
518 1 2 0.0 28.121733 23.807534 86.441861
519 1 2 0.0 65.664711 44.718139 13.197812
520 1 2 0.0 20.242645 69.922122 10.344795
521 1 2 0.0 68.924161 62.363683 43.100133
522 1 2 0.0 11.392778 75.521217 81.048444
523 1 2 0.0 39.118217 22.897867 11.847278
524 1 2 0.0 42.120889 58.419661 55.071144
525 1 2 0.0 8.403278 10.239773 47.068144
526 1 2 0.0 8.350501 19.646756 61.015994
527 1 2 0.0 42.613139 48.168917 13.002706
528 1 2 0.0 80.384194 64.821289 66.704761
529 1 2 0.0 80.471111 35.381106 21.890589
530 1 2 0.0 62.761367 78.073167 25.934423
531 1 2 0.0 68.660728 28.868822 3.677517
532 1 2 0.0 18.482312 31.604756 75.475761
533 1 2 0.0 19.808201 59.721728 12.466434
534 1 2 0.0 34.800839 9.810728 46.768328
535 1 2 0.0 15.017089 54.895433 75.401111
536 1 2 0.0 60.557489 2.377151 47.108278
537 1 2 0.0 58.875806 15.216367 18.727534
538 1 2 0.0 41.588789 69.932206 55.546194
539 1 2 0.0 41.383611 22.105478 22.834201
540 1 2 0.0 31.178844 80.792028 45.020044
541 1 2 0.0 52.278983 21.109256 43.273789
542 1 2 0.0 37.250706 32.603072 24.067812
543 1 2 0.0 4.136745 26.084921 46.788883
544 1 2 0.0 39.362511 79.223278 42.138372
545 1 2 0.0 4.990956 56.791039 26.287444
546 1 2 0.0 14.014589 55.216989 57.519883
547 1 2 0.0 14.097423 65.502694 27.859017
548 1 2 0.0 13.291201 3.805989 86.771611
549 1 2 0.0 72.208194 4.322951 11.110706
550 1 2 0.0 7.625356 86.813517 27.725978
551 1 2 0.0 71.109239 20.516923 10.231423
552 1 2 0.0 82.561089 9.405901 71.526267
553 1 2 0.0 17.800423 80.377622 39.078378
554 1 2 0.0 47.199567 58.411089 70.527528
555 1 2 0.0 87.709667 24.591312 34.339428
556 1 2 0.0 31.896594 47.912522 82.651928
557 1 2 0.0 20.205756 7.426834 4.370434
558 1 2 0.0 66.457233 85.450556 23.751145
559 1 2 0.0 35.830150 34.343072 72.607850
560 1 2 0.0 7.788123 53.849911 17.519367
561 1 2 0.0 80.700800 59.995339 44.273389
562 1 2 0.0 82.238244 33.353950 31.239944
563 1 2 0.0 12.661623 73.381856 25.063589
564 1 2 0.0 16.177923 30.501711 44.128867
565 1 2 0.0 1.902767 41.076594 46.119778
566 1 2 0.0 73.297678 40.167656 19.770201
567 1 2 0.0 33.177556 25.488645 17.262867
568 1 2 0.0 40.034139 74.116306 34.353261
569 1 2 0.0 45.401872 55.602572 42.850400
570 1 2 0.0 82.468156 60.525117 53.989667
571 1 2 0.0 58.477883 21.120867 49.378344
572 1 2 0.0 6.254195 44.313783 55.047272
573 1 2 0.0 40.743861 61.489967 79.656528
574 1 2 0.0 39.520139 53.347322 79.191517
575 1 2 0.0 29.036378 56.206494 20.649923
576 1 2 0.0 4.721528 60.772383 79.038861
577 1 2 0.0 79.954989 70.077039 59.611494
578 1 2 0.0 40.073678 38.816167 30.288300
579 1 2 0.0 13.443923 35.958967 66.682217
580 1 2 0.0 70.558600 48.080594 82.401428
581 1 2 0.0 63.839706 45.708194 23.566478
582 1 2 0.0 69.157011 56.010156 52.288100
583 1 2 0.0 81.942117 87.510528 32.410350
584 1 2 0.0 25.308812 37.231244 13.857034
585 1 2 0.0 67.773561 23.101478 34.112656
586 1 2 0.0 29.377083 32.803728 51.277917
587 1 2 0.0 5.810701 73.993383 17.997423
588 1 2 0.0 25.246812 71.782044 67.070667
589 1 2 0.0 69.591528 73.020878 46.233767
590 1 2 0.0 81.749261 7.270828 11.150578
591 1 2 0.0 26.012478 4.265101 29.018800
592 1 2 0.0 4.123495 10.703978 16.544812
593 1 2 0.0 37.667700 41.185800 19.005756
594 1 2 0.0 75.103861 34.824622 64.972272
595 1 2 0.0 78.343094 23.044923 73.530544
596 1 2 0.0 21.649923 38.260450 1.040545
597 1 2 0.0 19.487089 16.360978 36.520178
598 1 2 0.0 38.613944 12.753645 77.106867
599 1 2 0.0 12.920889 25.253478 29.812706
600 1 2 0.0 38.499289 86.841072 47.448006
601 1 2 0.0 53.265256 71.305178 40.381361
602 1 2 0.0 41.450383 38.706361 65.110267
603 1 2 0.0 0.258306 85.666544 40.614233
604 1 2 0.0 17.203089 43.517961 17.864423
605 1 2 0.0 51.372733 84.789750 16.825367
606 1 2 0.0 24.883867 30.175983 21.680867
607 1 2 0.0 27.267039 63.151611 14.130089
608 1 2 0.0 32.459222 17.472978 81.122578
609 1 2 0.0 1.082817 1.126973 14.229256
610 1 2 0.0 34.593083 82.063872 18.151867
611 1 2 0.0 9.864662 35.418067 3.020301
612 1 2 0.0 22.923034 13.553034 56.118667
613 1 2 0.0 19.488478 50.301289 40.901478
614 1 2 0.0 50.347328 30.382761 71.422667
615 1 2 0.0 2.178445 32.478256 52.122872
616 1 2 0.0 12.512656 80.356761 87.474867
617 1 2 0.0 28.152594 18.808589 34.709228
618 1 2 0.0 5.878134 50.528539 73.449106
619 1 2 0.0 53.695533 53.867950 66.103750
620 1 2 0.0 86.138261 3.437406 81.166272
621 1 2 0.0 54.359133 44.491122 24.658645
622 1 2 0.0 13.145701 50.403683 47.686150
623 1 2 0.0 84.915167 32.428678 59.543561
624 1 2 0.0 16.902089 4.475973 33.247000
625 1 2 0.0 64.717717 50.178211 77.663172
626 1 2 0.0 48.074356 82.418461 5.595817
627 1 2 0.0 42.266044 28.119656 66.825922
628 1 2 0.0 26.489250 12.824645 64.327739
629 1 2 0.0 68.684878 0.048456 43.577922
630 1 2 0.0 50.880111 47.803244 6.666117
631 1 2 0.0 47.228806 33.784622 36.760128
632 1 2 0.0 8.791706 82.704822 38.834433
633 1 2 0.0 44.168683 35.401256 84.374478
634 1 2 0.0 37.334833 86.642983 28.603200
635 1 2 0.0 49.027794 35.184183 61.874261
636 1 2 0.0 53.845039 4.816223 35.311206
637 1 2 0.0 48.856767 31.389656 5.730551
638 1 2 0.0 45.271661 22.689145 15.239423
639 1 2 0.0 84.880750 64.975800 17.448756
640 1 2 0.0 34.852494 14.100589 37.095356
641 1 2 0.0 12.735634 32.694428 33.858056
642 1 2 0.0 32.486172 15.089978 21.025589
643 1 2 0.0 42.807144 49.962489 65.204233
644 1 2 0.0 85.734878 68.321889 45.797117
645 1 2 0.0 59.863756 1.622323 78.372428
646 1 2 0.0 37.851644 10.133789 84.941683
647 1 2 0.0 71.945356 26.728644 23.401256
648 1 2 0.0 62.451489 35.630572 84.547089
649 1 2 0.0 49.875167 54.899072 30.437494
650 1 2 0.0 79.142939 15.304201 34.693489
651 1 2 0.0 48.380439 57.368689 84.157083
652 1 2 0.0 45.969022 35.033211 46.865733
653 1 2 0.0 14.099145 67.253339 74.524811
654 1 2 0.0 50.282606 2.092439 28.126350
655 1 2 0.0 67.905933 67.090339 2.921401
656 1 2 0.0 61.806878 70.731450 59.457450
657 1 2 0.0 66.866700 31.518733 66.196944
658 1 2 0.0 74.027456 58.471706 4.629867
659 1 2 0.0 18.594867 2.041978 19.022645
660 1 2 0.0 70.199522 30.904217 73.326067
661 1 2 0.0 35.250994 63.370211 72.360033
662 1 2 0.0 86.879083 13.796145 30.364911
663 1 2 0.0 21.330756 40.751317 80.458650
664 1 2 0.0 53.297633 29.600406 14.525923
665 1 2 0.0 29.460111 61.434439 81.945094
666 1 2 0.0 9.371945 87.362678 18.326256
667 1 2 0.0 61.750983 48.889289 40.272500
668 1 2 0.0 58.037694 45.735272 73.990594
669 1 2 0.0 42.907056 44.009167 40.309539
670 1 2 0.0 76.015461 14.498478 74.928894
671 1 2 0.0 35.236956 66.419756 51.090172
672 1 2 0.0 81.797772 37.461994 65.711328
673 1 2 0.0 47.363600 9.842245 84.854317
674 1 2 0.0 81.880267 15.489534 7.608373
675 1 2 0.0 16.119645 36.507906 57.659572
676 1 2 0.0 17.492367 76.701933 68.136061
677 1 2 0.0 30.255572 46.122600 70.924978
678 1 2 0.0 13.711923 35.737339 82.143894
679 1 2 0.0 13.133589 23.338367 2.168478
680 1 2 0.0 28.615139 43.132233 53.922967
681 1 2 0.0 62.534761 31.324617 43.897311
682 1 2 0.0 62.053506 58.215344 17.445201
683 1 2 0.0 9.490934 74.007533 68.527689
684 1 2 0.0 49.990928 78.130156 22.455256
685 1 2 0.0 43.636622 55.107056 22.535312
686 1 2 0.0 62.024972 60.338022 38.727144
687 1 2 0.0 11.175512 62.605617 82.406994
688 1 2 0.0 76.421622 58.644706 18.882756
689 1 2 0.0 73.908989 8.485467 63.171950
690 1 2 0.0 2.498378 79.452911 33.337378
691 1 2 0.0 7.135584 36.178728 74.625056
692 1 2 0.0 33.768589 3.342923 34.046861
693 1 2 0.0 2.523728 21.862701 15.211701
694 1 2 0.0 70.314811 74.673672 55.359600
695 1 2 0.0 70.960861 37.047489 30.391672
696 1 2 0.0 0.569484 8.353539 4.260873
697 1 2 0.0 0.801612 16.015645 59.300667
698 1 2 0.0 13.746312 8.488145 20.617089
699 1 2 0.0 36.834761 81.798672 54.098067
700 1 2 0.0 75.150239 25.888756 66.787044
701 1 2 0.0 70.700294 15.582034 85.027922
702 1 2 0.0 72.544450 32.748894 82.238861
703 1 2 0.0 4.904012 9.006651 83.675283
704 1 2 0.0 66.607594 61.700111 65.996311
705 1 2 0.0 2.188901 7.009973 33.016206
706 1 2 0.0 20.830089 23.345367 41.499933
707 1 2 0.0 80.889561 59.421294 35.641833
708 1 2 0.0 5.256162 68.436983 49.882600
709 1 2 0.0 78.157217 64.882778 0.501739
710 1 2 0.0 62.522389 16.332589 57.715844
711 1 2 0.0 29.326428 85.515644 80.265156
712 1 2 0.0 36.968661 81.578744 74.911728
713 1 2 0.0 8.023673 43.989150 5.392534
714 1 2 0.0 71.554217 13.486978 54.120217
715 1 2 0.0 63.196244 7.565073 37.986961
716 1 2 0.0 71.155106 4.557595 87.229406
717 1 2 0.0 38.702456 27.542039 79.052650